#(C) 2010 by Fachinformationszentrum Karlsruhe. All rights reserved.
data_31156-ICSD
_database_code_ICSD 31156
_audit_creation_date 1986-09-25
_audit_update_record 2003-04-01
_chemical_name_systematic 'Iron diiron(III) oxide - LT'
_chemical_formula_structural 'Fe3 O4'
_chemical_formula_sum 'Fe3 O4'
_chemical_name_mineral 'Magnetite low'
_exptl_crystal_density_diffrn 5.22
_cell_measurement_temperature 105.
_cell_measurement_pressure 101.325
#Default value included by FIZ Karlsruhe
_publ_section_title
'Neutron Diffraction Investigation of the 119 K Transition in Magnetite'
loop_
_citation_id
_citation_journal_full
_citation_year
_citation_journal_volume
_citation_page_first
_citation_page_last
_citation_journal_id_ASTM
primary 'Physical Review (1,1893-132,1963/141,1966-188,1969)' 1958 110 1050 1057
PHRVAO
loop_
_publ_author_name
'Hamilton, W.C.'
_cell_length_a 5.912
_cell_length_b 5.945
_cell_length_c 8.388
_cell_angle_alpha 90.
_cell_angle_beta 90.
_cell_angle_gamma 90.
_cell_volume 294.81
_cell_formula_units_Z 4
_symmetry_space_group_name_H-M 'I m m a'
_symmetry_Int_Tables_number 74
loop_
_symmetry_equiv_pos_site_id
_symmetry_equiv_pos_as_xyz
1 '-x, y+1/2, -z'
2 '-x, -y+1/2, z'
3 '-x, y, z'
4 '-x, -y, -z'
5 'x, -y+1/2, z'
6 'x, y+1/2, -z'
7 'x, -y, -z'
8 'x, y, z'
9 '-x+1/2, y, -z+1/2'
10 '-x+1/2, -y, z+1/2'
11 '-x+1/2, y+1/2, z+1/2'
12 '-x+1/2, -y+1/2, -z+1/2'
13 'x+1/2, -y, z+1/2'
14 'x+1/2, y, -z+1/2'
15 'x+1/2, -y+1/2, -z+1/2'
16 'x+1/2, y+1/2, z+1/2'
loop_
_atom_type_symbol
_atom_type_oxidation_number
Fe3+ 3
Fe2+ 2
O2- -2
loop_
_atom_site_label
_atom_site_type_symbol
_atom_site_symmetry_multiplicity
_atom_site_Wyckoff_symbol
_atom_site_fract_x
_atom_site_fract_y
_atom_site_fract_z
_atom_site_B_iso_or_equiv
_atom_site_occupancy
_atom_site_attached_hydrogens
Fe1 Fe4+ 4 e 0 0.25 0.125 0.0 1. 0
Fe2 Fe3+ 4 d 0.25 0.25 0.75 0.0 1. 0
Fe3 Fe2+ 4 b 0 0 0.5 0.0 1. 0
O1 O2- 8 h 0 0.5237 0.2445 0.0 1. 0
O2 O2- 8 i 0.2445 0.25 -.0154 0.0 1. 0
#End of data_31156-ICSD
