#(C) 2011 by Fachinformationszentrum Karlsruhe. All rights reserved.
data_151384-ICSD
_database_code_ICSD 151384
_audit_creation_date 2006-10-01
_audit_update_record 2008-02-01
_chemical_name_systematic 'Copper aluminide (1/2)'
_chemical_formula_structural 'Cu Al2'
_chemical_formula_sum 'Al2 Cu1'
_chemical_name_structure_type Hg2Pt
_exptl_crystal_density_diffrn 4.43
_cell_measurement_temperature 293.
#Default value included by FIZ Karlsruhe
_cell_measurement_pressure 101.325
#Default value included by FIZ Karlsruhe
_publ_section_title 'I.-X-ray analysis of solid solutions'
loop_
_citation_id
_citation_journal_full
_citation_year
_citation_journal_volume
_citation_page_first
_citation_page_last
_citation_journal_id_ASTM
primary 'Proceedings of the Physical Society, London' 1924 36 14 30 PPSOAU
loop_
_publ_author_name
'Owen, E.A.'
'Preston, G.D.'
_cell_length_a 4.28
_cell_length_b 4.28
_cell_length_c 2.405
_cell_angle_alpha 90.
_cell_angle_beta 90.
_cell_angle_gamma 90.
_cell_volume 44.06
_cell_formula_units_Z 1
_symmetry_space_group_name_H-M 'P 4/m m m'
_symmetry_Int_Tables_number 123
loop_
_symmetry_equiv_pos_site_id
_symmetry_equiv_pos_as_xyz
1 'y, x, -z'
2 '-y, -x, -z'
3 '-y, x, -z'
4 'y, -x, -z'
5 '-x, y, -z'
6 'x, -y, -z'
7 'x, y, -z'
8 '-x, -y, -z'
9 '-y, -x, z'
10 'y, x, z'
11 'y, -x, z'
12 '-y, x, z'
13 'x, -y, z'
14 '-x, y, z'
15 '-x, -y, z'
16 'x, y, z'
loop_
_atom_type_symbol
_atom_type_oxidation_number
Cu0+ 0
Al0+ 0
loop_
_atom_site_label
_atom_site_type_symbol
_atom_site_symmetry_multiplicity
_atom_site_Wyckoff_symbol
_atom_site_fract_x
_atom_site_fract_y
_atom_site_fract_z
_atom_site_B_iso_or_equiv
_atom_site_occupancy
_atom_site_attached_hydrogens
Cu1 Cu0+ 1 a 0.0001 0.0001 0.00001 0.0 1.0 0
Al2 Al0+ 2 e 0.5 0. 0.5 0.0 1.0 0
#End of data_151384-ICSD
