#(C) 2010 by Fachinformationszentrum Karlsruhe. All rights reserved.
data_2-ICSD
_database_code_ICSD 2
_audit_creation_date 2002-04-01
_chemical_name_systematic 'Manganese cobalt silicate (1.07/0.93/1)'
_chemical_formula_structural '(Mn1.07 Co.93) (Si O4)'
_chemical_formula_sum 'Co0.93 Mn1.07 O4 Si1'
_chemical_name_structure_type Mg2SiO4
_chemical_name_mineral Olivine-(Mn,Co)
_exptl_crystal_density_diffrn 4.4
_cell_measurement_temperature 20.
_cell_measurement_pressure 101.325
#Default value included by FIZ Karlsruhe
_publ_section_title
;
Strukturelle und magnetische Untersuchungen an (Mn,Co)-Olivin- Mischkristallem
;
loop_
_citation_id
_citation_journal_full
_citation_year
_citation_journal_volume
_citation_page_first
_citation_page_last
_citation_journal_id_ASTM
primary 'Zeitschrift fuer Kristallographie (149,1979-)' 1988 182 261 263 ZEKRDZ
loop_
_publ_author_name
'Untersteller, E.'
'Treutmann, W.'
'Hellner, E.'
'Schweiss, P.'
'Heger, G.'
'Hosoya, S.'
_cell_length_a 10.51(1)
_cell_length_b 6.129(6)
_cell_length_c 4.823(5)
_cell_angle_alpha 90.
_cell_angle_beta 90.
_cell_angle_gamma 90.
_cell_volume 310.68
_cell_formula_units_Z 4
_symmetry_space_group_name_H-M 'P n m a'
_symmetry_Int_Tables_number 62
_refine_ls_R_factor_all 0.053
loop_
_symmetry_equiv_pos_site_id
_symmetry_equiv_pos_as_xyz
1 'x+1/2, y, -z+1/2'
2 'x, -y+1/2, z'
3 '-x+1/2, y+1/2, z+1/2'
4 '-x, -y, -z'
5 '-x+1/2, -y, z+1/2'
6 '-x, y+1/2, -z'
7 'x+1/2, -y+1/2, -z+1/2'
8 'x, y, z'
loop_
_atom_type_symbol
_atom_type_oxidation_number
Co2+ 2
Mn2+ 2
Si4+ 4
O2- -2
loop_
_atom_site_label
_atom_site_type_symbol
_atom_site_symmetry_multiplicity
_atom_site_Wyckoff_symbol
_atom_site_fract_x
_atom_site_fract_y
_atom_site_fract_z
_atom_site_B_iso_or_equiv
_atom_site_occupancy
_atom_site_attached_hydrogens
Co1 Co2+ 4 a 0 0 0 0.0 1.0 0
Mn1 Mn2+ 4 c 0.2210(2) 0.25 0.5133(6) 0.0 1.0 0
Si1 Si4+ 4 c 0.4072(2) 0.25 0.0746(4) 0.0 1. 0
O1 O2- 4 c 0.4109(1) 0.25 0.7383(3) 0.0 1. 0
O2 O2- 4 c 0.0504(1) 0.25 0.2787(3) 0.0 1. 0
O3 O2- 8 d 0.3390(1) 0.4630(1) 0.2176(2) 0.0 1. 0
loop_
_atom_site_aniso_label
_atom_site_aniso_type_symbol
_atom_site_aniso_U_11
_atom_site_aniso_U_22
_atom_site_aniso_U_33
_atom_site_aniso_U_12
_atom_site_aniso_U_13
_atom_site_aniso_U_23
Co1 Co2+ 0.0043(19) -.0002(19) 0.0017(19) 0.0047(16) 0.0004(17) 0.0010(17)
Mn1 Mn2+ 0.0005(7) 0.0026(8) 0.0041(9) 0 0.0003(7) 0
Si1 Si4+ 0.0020(5) 0.0026(5) 0.0031(6) 0 0.0001(5) 0
O1 O2- 0.0048(3) 0.0045(3) 0.0011(5) 0 -.0003(4) 0
O2 O2- 0.0036(3) 0.0038(4) 0.0038(5) 0 -.0003(4) 0
O3 O2- 0.0039(2) 0.0038(2) 0.0040(3) 0.0012(2) -.0001(3) -.0004(3)
#End of data_2-ICSD
